 VARIABLES  =  "X"  "temp"  "u"  "rho"  "NC12H26" "H" "O" "OH" "HO2" "H2" "H2O" "H2O2" "O2" "CH2" "CH2S" "CH3" "CH4" "HCO" "CH2O" "CH3O" "CO" "CO2" "C2H2" "C2H3" "C2H4" "C2H5" "C2H6" "CH2CHO" "aC3H5" "C3H6" "nC3H7" "C2H3CHO" "C4H7" "C4H81" "pC4H9" "C5H9" "C5H10" "PXC5H11" "C6H12" "PXC6H13" "C7H14" "PXC7H15" "C8H16" "PXC8H17" "C9H18" "PXC9H19" "C10H20" "PXC10H21" "PXC12H25" "SXC12H25" "S3XC12H25" "C12H24" "C12H25O2" "C12OOH" "O2C12H24OOH" "OC12H23OOH" "N2"
 ZONE  I=959  FORMAT=POINT  SPECFORMAT=MOLE 
0.0 400.0 33.79132526672596 0.009273898719493473 0.011228385358185473 1.2594266018651067e-15 -3.525922245814331e-17 -7.688690124318348e-21 2.1149217789295026e-17 -7.776178503656097e-18 -1.3879217464382702e-18 6.510740642314204e-17 0.20772512912643104 -1.3470253391786924e-23 -2.894145272823677e-16 -1.7095085165799848e-30 -3.7788134181709304e-18 -4.028860203260108e-24 1.4840902287538193e-16 8.207914771838829e-36 -2.8550097348875902e-16 -2.7337954537816807e-17 -3.090203620898976e-18 -7.575283297103422e-30 1.0390541937374274e-16 -1.2475821361425312e-32 6.939381820250363e-19 -5.825192625022681e-28 -5.348799249381789e-17 3.947081327275658e-17 7.6562872424254e-27 6.1372463626916416e-18 -7.331618095389286e-17 -1.5682395753183483e-16 7.732352624937853e-29 -1.5057638496418291e-16 1.4249189756564177e-18 2.553655665050773e-16 -2.1215061345817169e-19 5.606870273273609e-18 -1.0162068682692532e-18 -1.2617375457464704e-16 4.555859339167133e-18 4.9687460833508585e-17 -3.5978228100206456e-18 -9.486452979881105e-17 -5.112857164998497e-18 -7.360192983516555e-18 -2.3210048886441196e-26 1.2723121973971308e-25 -3.40830592179654e-17 6.946278329938743e-19 -1.4043756138365052e-18 -2.976425515863542e-23 -1.0981703229654872e-19 -4.054537451297561e-18 0.7810464855153829
0.05 400.0000000000016 33.791325266726055 0.009273898719493443 0.011228385358185773 4.366385298774778e-21 -3.443938629887959e-20 -2.630273107087495e-19 1.1002237246362297e-15 -6.886258132444367e-18 -3.046023884068395e-16 6.523272233929511e-17 0.20772512912643076 -6.232081310137977e-22 -4.71586927997822e-23 -8.090860331559774e-29 -3.778813420747978e-18 -2.6466557980652472e-22 1.4840880624905203e-16 5.48990580701406e-34 -5.523521453257049e-16 -5.044546362956604e-17 -3.0911019402366045e-18 -4.843111450202873e-28 1.0390961075268109e-16 -8.785178719079799e-31 6.939381830453814e-19 -4.5217437132549194e-26 -5.3488214272697944e-17 3.947648809357296e-17 6.995020068646375e-25 6.137243832005891e-18 -7.331618011395072e-17 -1.5682375107694762e-16 8.165767466832551e-27 -1.5057594287092922e-16 1.4249191095834669e-18 2.5535753064153455e-16 -2.1215061194937982e-19 5.607506465977578e-18 -1.0162069366178266e-18 -1.2617188306492128e-16 4.5558593622858904e-18 4.968649338683278e-17 -3.5978228205407544e-18 -9.486426159301107e-17 -5.1128571703566466e-18 -7.360068237085303e-18 -4.7760435489133906e-24 -2.3977534436962438e-23 -4.0403478912625035e-23 6.934370836406927e-19 -2.9705419977414335e-16 -6.295749468039559e-21 -2.5482878933765548e-17 -5.790777267530744e-18 0.7810464855153836
0.15 400.00000000000136 33.791325266726055 0.009273898719493448 0.01122838535818578 7.984405174206677e-27 -1.6790423897723462e-23 -4.6365562540102185e-21 1.0999508671272677e-15 -6.8862554242112835e-18 -3.1362418986459936e-16 6.552545686030169e-17 0.20772512912643082 -1.727790161065001e-27 -3.832628634622175e-30 -6.470966434890607e-29 -3.77881342378909e-18 -1.5098583646062297e-27 1.4840837287444015e-16 1.3598671902805863e-36 -5.523533877434617e-16 -5.044559207354347e-17 -3.0911049889663334e-18 -4.843104229157894e-28 1.0391799284666049e-16 -2.242022989719962e-31 6.939381842088949e-19 -4.524436020812949e-26 -5.348865786548514e-17 3.9487838402482775e-17 6.995409337989955e-25 6.137238771510881e-18 -7.331617845594088e-17 -1.56823338055887e-16 8.168079999840021e-27 -1.505750587025948e-16 1.4249193803828428e-18 2.553414597777848e-16 -2.121506058922135e-19 5.608778695679813e-18 -1.0162070702111563e-18 -1.2616814016737814e-16 4.555859415116006e-18 4.968455856904207e-17 -3.597822837299435e-18 -9.486372518336039e-17 -5.112857178179353e-18 -7.35981875595343e-18 -7.566350599543496e-26 -3.6264437464597004e-25 -4.999841411204768e-25 6.934046363872682e-19 -2.5857219756058415e-16 -5.481884375896661e-21 -6.400398449922341e-17 -1.448173335225133e-17 0.7810464855153836
0.25 400.0000000000011 33.79132526672603 0.009273898719493455 0.011228385358185792 3.2819457532201976e-31 -4.616839225761817e-26 -6.52571881063802e-21 1.0996745489126725e-15 -6.8862558696756125e-18 -3.2629923354410685e-16 6.581824032810433e-17 0.20772512912643087 -4.648352354700578e-33 -3.230091641730148e-37 -2.541288666695813e-28 -3.778813426189044e-18 -3.9948244603294496e-28 1.4840793948982722e-16 3.520905260453888e-40 -5.523538230490009e-16 -5.0445592071087196e-17 -3.0911080328464513e-18 -4.8430856214683e-28 1.0392637433330326e-16 -4.151240939130586e-31 6.939381852015472e-19 -4.5244610196176106e-26 -5.348910146762516e-17 3.949918797683969e-17 6.99496911576435e-25 6.137233710138555e-18 -7.331617680489584e-17 -1.5682292494329988e-16 8.169931817288066e-27 -1.5057417454261385e-16 1.4249196510940075e-18 2.5532538978156105e-16 -2.1215059988070257e-19 5.6100507660477354e-18 -1.0162072038320956e-18 -1.2616439739402037e-16 4.55585946786471e-18 4.9682623825298064e-17 -3.5978228540878925e-18 -9.486318877693723e-17 -5.112857186017674e-18 -7.359569283570164e-18 -1.0495121437638435e-25 -5.136017441484986e-25 -7.059330096817378e-25 6.933588519541025e-19 -2.2909420340154083e-16 -4.857253182126283e-21 -9.318690971585926e-17 -2.712941916418659e-17 0.7810464855153836
0.375 400.00000000000074 33.79132526672599 0.009273898719493464 0.011228385358185811 3.140061497559048e-31 -2.814599650490865e-26 -8.349769683411417e-21 1.0993292485340081e-15 -6.886255897843247e-18 -3.4654357947248147e-16 6.618424269699293e-17 0.20772512912643096 -9.933117147029143e-39 3.1795927964996745e-42 -3.3746931225261833e-26 -3.778813435634125e-18 -3.9947697829570252e-28 1.4840739774763905e-16 -7.676359683192503e-37 -5.523543672090428e-16 -5.044559206830882e-17 -3.091111837772654e-18 -4.843062358328463e-28 1.0393685027104332e-16 -7.182285874668707e-31 6.939382081438696e-19 -4.524505773705962e-26 -5.34896559716117e-17 3.9513373792790696e-17 6.994418816946223e-25 6.137227382761812e-18 -7.331617474621339e-17 -1.568224084078703e-16 8.172246410888509e-27 -1.505730693534228e-16 1.4249199893886137e-18 2.5530530364197926e-16 -2.121505924159151e-19 5.611640605239688e-18 -1.016207370891135e-18 -1.2615971912113526e-16 4.55585953368619e-18 4.9680205511248557e-17 -3.597822875114846e-18 -9.486251827398223e-17 -5.112857195835477e-18 -7.359257456951932e-18 -1.3354016026255e-25 -6.607018261276354e-25 -9.067924096109294e-25 6.932853736182865e-19 -2.02684276189283e-16 -4.297631747502146e-21 -1.1922795414957436e-16 -4.735134105114744e-17 0.7810464855153836
0.5 400.00000000000034 33.791325266725956 0.009273898719493473 0.011228385358185837 3.1397529897867824e-31 -2.1017953288594056e-26 -9.650679136542836e-21 1.0989840504935852e-15 -6.886240964083042e-18 -3.6993010987077503e-16 6.655022921567826e-17 0.207725129126431 1.7076895452346225e-40 1.1075759375943065e-41 -1.3945482031369342e-25 -3.778813465311176e-18 -3.994750619163621e-28 1.4840685597371508e-16 7.59161455884356e-36 -5.52354911439482e-16 -5.044559206688696e-17 -3.0911156429634105e-18 -4.843039091771768e-28 1.0394732524582143e-16 -1.0667798753785583e-30 6.939382833315839e-19 -4.524560874180214e-26 -5.3490210494823554e-17 3.9527558462024293e-17 6.99386855900457e-25 6.137221053703165e-18 -7.331617270082708e-17 -1.5682189173012942e-16 8.17456084090929e-27 -1.505719641785481e-16 1.4249203275348095e-18 2.5528521885785807e-16 -2.1215058502438997e-19 5.613230195412743e-18 -1.016207537989183e-18 -1.2615504104246918e-16 4.555859599381302e-18 4.967778731292676e-17 -3.597822896177346e-18 -9.486184777616715e-17 -5.11285720566787e-18 -7.358945644212092e-18 -1.5392890109175794e-25 -7.656142033121466e-25 -1.0500460527846338e-24 6.932003043237527e-19 -1.8374424710251636e-16 -3.89629515226143e-21 -1.3779944394256225e-16 -7.072072269495858e-17 0.7810464855153836
0.75 399.99999999999955 33.791325266725906 0.009273898719493488 0.011228385358185888 3.1391368672551988e-31 -1.295435556960091e-26 -1.1086955291658622e-20 1.098294082302115e-15 -6.884674123501522e-18 -4.2363123802137816e-16 6.728196906675162e-17 0.2077251291264311 3.4635340051692602e-40 2.2720201591345243e-41 -4.595026524210957e-25 -3.778813654723294e-18 -3.9947122546337675e-28 1.484057723560958e-16 4.000203944716108e-34 -5.523559998909641e-16 -5.044559206414746e-17 -3.0911232531228352e-18 -4.842992544112032e-28 1.0396827162253024e-16 -1.8641907395851824e-30 6.939385883279141e-19 -4.524693908153049e-26 -5.349131949926559e-17 3.9555923178235375e-17 6.992768200091306e-25 6.137208395987065e-18 -7.33161686065967e-17 -1.5682085778865354e-16 8.179188695153541e-27 -1.5056975385985494e-16 1.424921003709029e-18 2.5524505471467425e-16 -2.1215057026705033e-19 5.616408380550398e-18 -1.0162078722023707e-18 -1.261456856588189e-16 4.555859730626378e-18 4.967295137872387e-17 -3.597822938362902e-18 -9.486050679988001e-17 -5.112857225362922e-18 -7.358322072500371e-18 -1.7643622641051227e-25 -8.814445518770524e-25 -1.2082072528586839e-24 6.930045799177307e-19 -1.6250378787585895e-16 -3.446209934825358e-21 -1.5830332476468377e-16 -1.2440731444679993e-16 0.7810464855153834
0.8750000000000001 399.99999999999915 33.79132526672587 0.009273898719493499 0.011228385358185914 3.138828710279087e-31 -1.002983986300618e-26 -1.1596477867291638e-20 1.0979492076695283e-15 -6.8441440469285916e-18 -4.517158598203309e-16 6.764776494789594e-17 0.20772512912643118 3.6546292325955565e-40 2.407260211390535e-41 -5.934154283073077e-25 -3.778813777524487e-18 -3.9946930647208547e-28 1.48405230544828e-16 7.541447463526681e-34 -5.523565440545755e-16 -5.0445592061361003e-17 -3.0911270579740577e-18 -4.842969266458719e-28 1.0397874395110477e-16 -2.2807028102190733e-30 6.939387491609502e-19 -4.524764477472403e-26 -5.3491873976579744e-17 3.957010437121907e-17 6.99221805944956e-25 6.137202068354061e-18 -7.33161665499879e-17 -1.5682034066816106e-16 8.181502339131105e-27 -1.5056864870308974e-16 1.4249213418616559e-18 2.5522497400536786e-16 -2.12150562829594e-19 5.617997224181195e-18 -1.01620803927248e-18 -1.2614100816021525e-16 4.555859796357249e-18 4.9670533527553216e-17 -3.5978229594381626e-18 -9.485983631591848e-17 -5.112857235211693e-18 -7.358010298727424e-18 -1.8441979447416073e-25 -9.22536071889835e-25 -1.2643157383651382e-24 6.929021751131693e-19 -1.5486207235395403e-16 -3.284281124048729e-21 -1.6557711244570783e-16 -1.5248404014012354e-16 0.7810464855153834
1.0 399.99999999999875 33.79132526672584 0.009273898719493507 0.011228385358185945 3.1385203022518314e-31 -7.897126631114304e-27 -1.195682833945314e-20 1.097604443406429e-15 -5.433182952019783e-18 -4.806706204097264e-16 6.801347593557531e-17 0.2077251291264312 2.8512185469974445e-40 1.8747534620408598e-41 -6.381224548723213e-25 -3.778813909130808e-18 -3.994673868513872e-28 1.4840468872645156e-16 1.3436494738365199e-33 -5.523570882195754e-16 -5.0445592058574574e-17 -3.0911308628069797e-18 -4.842945985070685e-28 1.0398921537667638e-16 -2.7097994919379483e-30 6.939388723321729e-19 -4.5248379100053255e-26 -5.349242844725612e-17 3.958428440866014e-17 6.991667957062821e-25 6.137195740655439e-18 -7.331616449390969e-17 -1.568198234014439e-16 8.183815677814645e-27 -1.5056754355443608e-16 1.4249216799836968e-18 2.5520489465343856e-16 -2.1215055539402287e-19 5.619585819196506e-18 -1.0162082063403844e-18 -1.26136330855159e-16 4.5558598620762566e-18 4.9668115792093647e-17 -3.597822980518707e-18 -9.485916583670025e-17 -5.112857245063671e-18 -7.357698538164583e-18 -1.9006505571969392e-25 -9.515977081619885e-25 -1.3039978365649233e-24 6.927965598233059e-19 -1.4935008977253813e-16 -3.167480698810119e-21 -1.7072134032812174e-16 -1.8143255036935033e-16 0.7810464855153834
1.125 399.9999999999983 33.791325266725806 0.009273898719493516 0.011228385358185973 3.1382113493140785e-31 -6.3309582137601064e-27 -1.2210450396944184e-20 1.0972597904251651e-15 4.368561782252932e-17 -5.102377757345694e-16 6.837909417889118e-17 0.20772512912643123 9.225520231587383e-41 5.981152567470691e-42 -5.373293018171728e-25 -3.778814019598645e-18 -3.994654666898765e-28 1.4840414691691307e-16 2.252059874361449e-33 -5.52357632385196e-16 -5.044559205578751e-17 -3.0911346676212144e-18 -4.842922699913354e-28 1.0399968589912852e-16 -3.147751707657054e-30 6.939389068914581e-19 -4.5249133566369056e-26 -5.349298291129536e-17 3.9598463290639705e-17 6.991117892624834e-25 6.1371894128911844e-18 -7.331616243836206e-17 -1.568193059885216e-16 8.186128695049716e-27 -1.505664384138941e-16 1.4249220180763344e-18 2.5518481665880094e-16 -2.1215054795915603e-19 5.62117416559471e-18 -1.016208373404903e-18 -1.261316537436408e-16 4.55585992778596e-18 4.966569817234056e-17 -3.597823001602926e-18 -9.485849536222398e-17 -5.112857254917784e-18 -7.357386790811336e-18 -1.9403732488365626e-25 -9.72052302660597e-25 -1.3319273189558849e-24 6.92688684954045e-19 -1.4536190138797415e-16 -3.0829690039177904e-21 -1.743419315728308e-16 -2.1099463188231945e-16 0.7810464855153832
1.25 399.9999999999979 33.79132526672583 0.009273898719493509 0.011228385358185985 3.137893575194237e-31 -5.170160974443073e-27 -1.2387711807664394e-20 1.0969152493685937e-15 1.7536240375589381e-15 -5.402328985215021e-16 6.874461407366331e-17 0.20772512912643093 -2.173883086543278e-40 -1.4559026316692278e-41 -2.44327164062594e-25 -3.778814026837362e-18 -3.9946354605093284e-28 1.484036051373435e-16 3.5570042696678765e-33 -5.523581764417705e-16 -5.0445592052894966e-17 -3.091138472356527e-18 -4.842899410961888e-28 1.0401015551851614e-16 -3.591891271139906e-30 6.939387994003174e-19 -4.5249902098525387e-26 -5.349353736869724e-17 3.961264101723797e-17 6.990567865915887e-25 6.137183085061322e-18 -7.331616038334407e-17 -1.5681878842941435e-16 8.188441379286773e-27 -1.5056533328146331e-16 1.424922356140414e-18 2.551647400213689e-16 -2.1215054052414568e-19 5.622762263380029e-18 -1.0162085404651886e-18 -1.261269768256515e-16 4.5558599934882e-18 4.966328066828906e-17 -3.597823022689662e-18 -9.48578248924886e-17 -5.112857264773259e-18 -7.357075056666993e-18 -1.9681262383520851e-25 -9.863488430283584e-25 -1.3514481928599642e-24 6.925792308513142e-19 -1.424639698971877e-16 -3.0215595175516074e-21 -1.7687241132023208e-16 -2.4098554159053716e-16 0.7810464855153818
1.375 399.9999999999975 33.79132526672764 0.00927389871949301 0.011228385358185513 3.137277534228426e-31 -4.043774789008848e-27 -1.2510329540914694e-20 1.0965708207920647e-15 6.128051309657896e-14 -5.705218058231229e-16 6.911003194878772e-17 0.20772512912641924 -6.614525677308111e-40 -4.401544516744776e-41 2.8966596760301115e-25 -3.778808830586564e-18 -3.9946162497985295e-28 1.4840306341778952e-16 5.32023250015664e-33 -5.523587062703853e-16 -5.044559203246195e-17 -3.091142267573408e-18 -4.842876118198929e-28 1.0402062425438142e-16 -4.0403092639775386e-30 6.939384888176899e-19 -4.5250680348735674e-26 -5.349409181918774e-17 3.9626817588427704e-17 6.990017876778829e-25 6.137176757179543e-18 -7.331615832873998e-17 -1.5681827072410247e-16 8.190753722275596e-27 -1.5056422815709119e-16 1.424922694177271e-18 2.5514466474106714e-16 -2.12150533087999e-19 5.624350112561436e-18 -1.0162087075204305e-18 -1.2612230010117395e-16 4.555860059184494e-18 4.966086327993215e-17 -3.5978230437778804e-18 -9.485715442748808e-17 -5.112857274629321e-18 -7.35676333572871e-18 -1.9873136155558998e-25 -9.96238653208861e-25 -1.3649518291056342e-24 6.924686864400558e-19 -1.403457241537119e-16 -2.976671328249506e-21 -1.7862281551632447e-16 -2.7127306469219975e-16 0.7810464855153345
1.5 399.99999999999704 33.79132526679199 0.009273898719475352 0.011228385358168034 3.126254067585016e-31 5.422310686335104e-23 -1.2532281491678366e-20 1.0962265187250445e-15 2.1335484269981624e-12 -6.007614813992154e-16 6.947538705357006e-17 0.20772512912600977 -1.1981173931659692e-39 -8.4774642344436e-41 1.3321604453433614e-24 -3.7782055536700924e-18 -3.9945970291429687e-28 1.48402522374476e-16 7.587880682364614e-33 -5.523574050988871e-16 -5.044558909405778e-17 -3.0911445738502616e-18 -4.842852821613446e-28 1.0403109527215386e-16 -4.491261114292146e-30 6.939379284327456e-19 -4.5251464950979536e-26 -5.349464620163536e-17 3.964099298049195e-17 6.989467926157459e-25 6.1371704328824274e-18 -7.331615624540902e-17 -1.5681775286319377e-16 8.193065764715352e-27 -1.5056312302718239e-16 1.424923032416133e-18 2.5512459082400683e-16 -2.1215052552535668e-19 5.625937713212687e-18 -1.0162088745095865e-18 -1.2611762356896214e-16 4.5558601250270826e-18 4.965844600725843e-17 -3.597823064836045e-18 -9.48564839664839e-17 -5.112857284474375e-18 -7.356451627125928e-18 -1.9808440584914294e-25 -9.935572710918221e-25 -1.3606960331486605e-24 6.92358465265362e-19 -1.3854994567369894e-16 -2.9386142081639253e-21 -1.7976938260936856e-16 -3.0175483839108785e-16 0.7810464855136893
1.5625 399.9999999999968 33.791325267640524 0.009273898719242474 0.011228385357937304 2.984239140171509e-31 3.9711489799986207e-26 -1.262283120201841e-20 1.0960550161601133e-15 2.9445236448832254e-11 -6.11603766663436e-16 6.965873909553078e-17 0.207725129120612 -1.6386869180462484e-39 -1.0856852442121537e-40 1.3906291123979077e-23 -3.751591684045447e-18 -3.9945874274763215e-28 1.484022840910572e-16 9.281148099983027e-33 -5.52268409147828e-16 -5.044540573999211e-17 -3.0910582561199498e-18 -4.842841173713773e-28 1.0403651547849581e-16 -4.717687133109343e-30 6.939395013516644e-19 -4.5251858539786594e-26 -5.349492323316107e-17 3.9648080327157536e-17 6.989192959572021e-25 6.137167280385618e-18 -7.33161551246852e-17 -1.5681749386783823e-16 8.194221629858807e-27 -1.5056257042357544e-16 1.424923202149702e-18 2.551145542220884e-16 -2.1215052137053393e-19 5.6267314507534054e-18 -1.0162089577959944e-18 -1.2611528534591598e-16 4.555860158410763e-18 4.965723739940487e-17 -3.597823075196336e-18 -9.485614873295091e-17 -5.112857289283698e-18 -7.356295772002226e-18 -2.0048646153614927e-25 -1.0053071487584277e-24 -1.3773341968764689e-24 6.92302691035466e-19 -1.379055250790099e-16 -2.9249569825251855e-21 -1.8023007027508414e-16 -3.170347725440061e-16 0.7810464854920062
1.59375 399.99999999999676 33.79132527344452 0.00927389871764959 0.011228385356359052 2.013023987915357e-31 -2.976504947992709e-27 -1.263725324800164e-20 1.0959842622100719e-15 2.1625189033968065e-10 -5.24716364296543e-16 6.97677717828253e-17 0.20772512908369192 -1.8794481541010216e-39 -1.2570552892966183e-40 3.241660503242986e-22 -3.1576722228352583e-18 -3.9945826795944683e-28 1.4840313460426887e-16 2.1104165816462667e-32 -5.500869082093193e-16 -5.043962899521956e-17 -3.088439209699037e-18 -4.842835417421807e-28 1.0404483284867406e-16 -4.830895167569728e-30 6.940041147652274e-19 -4.5252056251829566e-26 -5.3495061668322586e-17 3.9651624153128086e-17 6.989055479607465e-25 6.137165708541816e-18 -7.331615451314842e-17 -1.5681736432157305e-16 8.1947995627074e-27 -1.5056229407955257e-16 1.4249232872466767e-18 2.551095359845471e-16 -2.1215051901523627e-19 5.627128302824877e-18 -1.0162089991594268e-18 -1.261141162276044e-16 4.5558601749866814e-18 4.965663309660522e-17 -3.597823079800448e-18 -9.48559811016984e-17 -5.112857291001532e-18 -7.356217839783214e-18 -2.0071224454163386e-25 -1.00647180855007e-24 -1.3789246326408605e-24 6.922747711747299e-19 -1.3760902336888094e-16 -2.9186734002295384e-21 -1.8043477115476934e-16 -3.246834306949018e-16 0.7810464853436978
1.625 399.99999999999807 33.791325328310286 0.009273898702591895 0.01122838534143965 -7.174218212690354e-31 -2.9019749108298737e-27 -1.2649503932722143e-20 1.0964015416593578e-15 1.9821491938079575e-09 2.1835879106526467e-15 7.044600586068044e-17 0.20772512873468357 -4.392651170474721e-39 -3.2014814017152008e-40 1.0340554097337678e-20 1.4712744039168935e-17 -3.994579766099646e-28 1.4844382674524094e-16 3.8259082132617694e-31 -4.782695845033817e-16 -5.01950195280311e-17 -2.9838181182426746e-18 -4.842831885119536e-28 1.0428215141995828e-16 -4.944179183093489e-30 6.969054002642647e-19 -4.525227498636847e-26 -5.349520002284812e-17 3.965518274234925e-17 6.988918003784626e-25 6.137164138152457e-18 -7.331615379410677e-17 -1.5681723422708395e-16 8.195377476278879e-27 -1.5056201754643236e-16 1.4249233734873706e-18 2.5510451751332975e-16 -2.121505162786441e-19 5.6275251324032675e-18 -1.0162090392688506e-18 -1.2611294696726535e-16 4.55586018602191e-18 4.965602874084851e-17 -3.597823080059672e-18 -9.485581335647816e-17 -5.112857286581408e-18 -7.356139899643586e-18 -2.0089560972390408e-25 -1.0073866161377326e-24 -1.3801673637863495e-24 6.922468260898716e-19 -1.373348151127014e-16 -2.91286221147515e-21 -1.8061613677499837e-16 -3.3233976952701077e-16 0.7810464839417255
1.65625 400.0000000000447 33.79132584696393 0.009273898560249409 0.011228385200405377 -9.377638763735121e-30 -2.7694439368766377e-27 -1.2645902107170535e-20 1.1128701783672686e-15 1.8675308665665765e-08 8.020312728517695e-14 8.997403651762766e-17 0.2077251254354766 -9.29247739592774e-38 -7.091172040306304e-39 3.338012395075611e-19 5.524140404782916e-16 -3.9946371855395257e-28 1.5013796620311625e-16 1.2212765545581517e-29 1.8858948098403273e-15 -3.9837290698266355e-17 1.1939635229740276e-18 -4.842901498014376e-28 1.1394841915498358e-16 -5.057098008310876e-30 8.26789499761701e-19 -4.525317704697609e-26 -5.349533704456281e-17 3.9659592228372e-17 6.988780548400986e-25 6.137163106759272e-18 -7.331615192360022e-17 -1.5681707924976923e-16 8.195955404278038e-27 -1.5056173917503363e-16 1.4249236604329171e-18 2.550994961449564e-16 -2.1215050107880302e-19 5.627921880109638e-18 -1.0162090667312307e-18 -1.261117762589243e-16 4.555860145357072e-18 4.965542382394881e-17 -3.5978230391521264e-18 -9.485564452921577e-17 -5.112857224129191e-18 -7.356061874448484e-18 -2.0058507479125962e-25 -1.0047187982686168e-24 -1.376323529392824e-24 6.922189621585468e-19 -1.3705278862602077e-16 -2.906885328741687e-21 -1.8077461200050541e-16 -3.4000280044341506e-16 0.7810464706887262
1.671875 400.00000000063943 33.791327750414986 0.009273898037854663 0.011228384682823195 -3.9538596042585355e-29 -2.71722830217351e-27 -1.2470565091466115e-20 1.3190794630176531e-15 7.993758465470533e-08 9.305727454374675e-13 3.3382329292467697e-16 0.20772511332764831 -1.2440057473031948e-36 -9.428608238915611e-38 4.291334592077849e-18 6.6866807348450155e-15 -3.995410176193762e-28 1.7675580505932427e-16 1.8906269537932916e-28 3.136620836130812e-14 1.2592760113029935e-16 6.427662037359931e-17 -4.843838642151145e-28 2.6436761466120646e-16 -5.112065537932941e-30 3.0233861689748995e-18 -4.526205244974974e-26 -5.34953929066502e-17 3.968005917323332e-17 6.988711886723293e-25 6.137177183473492e-18 -7.331614720935008e-17 -1.568164236782885e-16 8.196244640732865e-27 -1.5056159361636815e-16 1.4249297675275219e-18 2.550969748446672e-16 -2.1215018939306813e-19 5.628120016842429e-18 -1.0162090162158337e-18 -1.2611118574038323e-16 4.555859944402989e-18 4.965511935118568e-17 -3.597822872690124e-18 -9.485555628294473e-17 -5.112856987176624e-18 -7.356022561069347e-18 -1.9473808050096392e-25 -9.614371780881244e-25 -1.3147849345563248e-24 6.922057827781952e-19 -1.3671288267100762e-16 -2.899683128482745e-21 -1.808411999481235e-16 -3.438356770090142e-16 0.781046422050974
1.6875 400.00000001092735 33.79133769957804 0.009273895307346493 0.01122838197765949 -6.668241174593021e-29 -2.8635678950443513e-27 -9.570408874258585e-21 4.8138736687683605e-15 4.0012711629017987e-07 1.3570998702222875e-11 4.4927893062544296e-15 0.20772505004465747 -1.4439894817768835e-35 -1.1002304562594284e-36 6.797690608105607e-17 1.0204152993540285e-13 -4.008548358757832e-28 7.449389940797789e-16 1.1533788315822178e-26 5.313386799214702e-13 3.7183798551800775e-15 1.3553307854792136e-15 -4.8597684308034205e-28 3.4362460182910868e-15 -5.109469894172811e-30 5.328754864280687e-17 -4.5410910366708685e-26 -5.3495138365782135e-17 4.02258572125564e-17 6.988643635839351e-25 6.137683513610747e-18 -7.331612350059084e-17 -1.5679673107283893e-16 8.196537502451736e-27 -1.5056141708426758e-16 1.4251597569355017e-18 2.5509440215218316e-16 -2.1213759424521911e-19 5.628317025800708e-18 -1.0162077491538233e-18 -1.2611056995623901e-16 4.555859045983633e-18 4.965480501052724e-17 -3.597821981052222e-18 -9.485544930427805e-17 -5.112855742811112e-18 -7.355981819268083e-18 -9.936791987279729e-26 -2.5612389266914317e-25 -3.133736677780003e-25 6.922048104478616e-19 -1.331696630887534e-16 -2.8246135596515017e-21 -1.80788490701805e-16 -3.4766688649258637e-16 0.7810461678363447
1.7031250000000002 400.00000018888153 33.791389711235794 0.009273881032980361 0.011228367839007491 1.0696944520480067e-26 -6.47420217142777e-27 3.712135767937538e-20 6.408839567184772e-14 2.0736083132011897e-06 2.0146536667595897e-10 7.540930685923615e-14 0.20772471927738595 1.0202929778936825e-33 7.677079255937932e-35 1.0922095101857493e-15 1.584295344959257e-12 -4.237447900282804e-28 1.287993690806888e-14 2.2904492778494748e-24 9.010636137289758e-12 8.15738678071849e-14 2.7778124395539972e-14 -5.137884192241478e-28 7.032190311598856e-14 -2.6632158635807228e-30 1.203468473060604e-15 -4.8007609079383755e-26 -5.348611545555827e-17 5.605739452917899e-17 6.988587593656008e-25 6.154756930068861e-18 -7.33159971797511e-17 -1.561385542665983e-16 8.196885674487418e-27 -1.5056107857652274e-16 1.433806925923077e-18 2.5509159007216147e-16 -2.1161255902124173e-19 5.628508753582634e-18 -1.0161590622192569e-18 -1.26109821954587e-16 4.55586389292769e-18 4.96544390959455e-17 -3.597816681331614e-18 -9.48552444064122e-17 -5.1128491833289065e-18 -7.355933605337081e-18 1.4361098296675564e-24 1.1134351236094514e-23 1.58403612971675e-23 6.923835027883958e-19 -8.249181028534487e-17 -1.7509685495802517e-21 -1.792209178894832e-16 -3.5146294385372846e-16 0.7810448390628997
1.7109375000000002 400.00000136541684 33.79149822946765 0.009273851250779966 0.011228338360493703 2.1109463440184965e-25 -3.049585990716284e-26 3.2448592537897767e-19 4.4815877231222875e-13 5.56272866252079e-06 1.2723137571869533e-09 5.379111887498368e-13 0.2077240295395249 5.749578232881095e-32 4.348803470652556e-33 7.396812465290638e-15 1.0409962365228182e-11 -5.693673740897223e-28 1.1162467557705137e-13 1.201753839583306e-22 6.399734136857286e-11 7.240357260749399e-13 2.3386976649453844e-13 -6.940416816705804e-28 6.075911335470864e-13 -1.2214122493254928e-30 1.121694842301683e-14 -6.482592586627932e-26 -5.3386879817793066e-17 2.3076160464721084e-16 6.9890802434245685e-25 6.371997134742083e-18 -7.331569614714675e-17 -1.477695699874065e-16 8.197396735902411e-27 -1.5056059198639356e-16 1.556686132218204e-18 2.5509013828892307e-16 -2.0331196546672804e-19 5.628603926976427e-18 -1.0153369013211503e-18 -1.2610918621229648e-16 4.556051738210703e-18 4.9654155187070464e-17 -3.5977930721278296e-18 -9.48549498533022e-17 -5.112834422289555e-18 -7.355894851433717e-18 1.089177541512161e-23 8.151363651529554e-23 1.155368098039101e-22 6.931029772207423e-19 1.0939033605209831e-16 2.3126256186521876e-21 -1.7508891166733597e-16 -3.533066824389308e-16 0.7810420680219167
1.7187500000000002 400.0000121288246 33.79183674039778 0.009273758349644202 0.011228246584950414 5.150731834174419e-24 -2.4116761216671888e-25 2.7403634626091346e-18 3.894066781780158e-12 1.642523946335851e-05 9.76655361671291e-09 4.713996095356445e-12 0.20772188130348676 3.960727698087138e-30 2.9958767521197627e-31 6.038871192426433e-14 8.341883350489052e-11 -1.5829621427053656e-27 1.2166028570427271e-12 8.450666710390012e-21 5.577633966748173e-10 8.0069453291402e-12 2.4458504903660677e-12 -2.273738463779944e-27 6.540928106428567e-12 8.169246332502272e-29 1.3079122729794282e-13 -2.1208219758663067e-25 -5.1901767112536347e-17 2.859773585329391e-15 7.033773230936088e-25 1.0128524683458664e-17 -7.331430606403899e-17 -3.049752507654542e-18 8.200833563568766e-27 -1.5055922345114184e-16 3.9254852987071e-18 2.5509673814789214e-16 -2.5503409319240497e-20 5.628904878716437e-18 -9.961631453332781e-19 -1.2610776154938716e-16 4.561062369675961e-18 4.9653594074542236e-17 -3.597383526173094e-18 -9.485411613331154e-17 -5.1127573803700035e-18 -7.355815414359373e-18 9.044395968193057e-23 6.761777966189082e-22 9.566178892945976e-22 6.9895956152935355e-19 1.6604154231606991e-15 3.515848692378554e-20 -1.450174479428266e-16 -3.547755310021348e-16 0.7810334364373503
1.7265625 400.000110589711 33.792896623913386 0.009273467486634991 0.011227960856950076 1.3226392457552794e-22 -1.3154043007779011e-24 2.312348843001693e-17 3.481062069508024e-11 5.024256831710045e-05 7.714443084365043e-08 4.24210082220625e-11 0.20771518527780647 2.796864996283653e-28 2.115863232914821e-29 5.055463616420054e-13 6.873680135311297e-10 1.958540633891453e-26 1.3583037387630988e-11 5.752369461466054e-19 4.991613692482696e-09 9.056481201030258e-11 2.6186825812072557e-11 -1.1352155721398124e-26 7.20652055141471e-11 6.561143594810089e-27 1.5586546851876345e-12 -1.0498967839889956e-24 -2.966357676661861e-17 4.2421889871884424e-14 1.112555954035246e-24 7.508239887849157e-17 -7.330625499628747e-17 2.499575107339559e-15 8.233644714253558e-27 -1.5055510893372e-16 4.9588452281658915e-17 2.552877034409881e-16 3.783523218202483e-18 5.634350060917764e-18 -5.478915716797115e-19 -1.2610242575101802e-16 4.6883322616933275e-18 4.9652258414094013e-17 -3.587002646715116e-18 -9.4851462046008e-17 -5.111614729000864e-18 -7.3556086315303e-18 7.607250427197925e-22 5.7065732616142305e-21 8.059510762686091e-21 7.437068307453913e-19 1.354289480553967e-14 2.867756303341692e-19 6.084334808856427e-17 -3.5399809533084913e-16 0.7810065281917601